
     Program PWSCF v.6.3 starts on 16Sep2021 at 21:14:36 

     This program is part of the open-source Quantum ESPRESSO suite
     for quantum simulation of materials; please cite
         "P. Giannozzi et al., J. Phys.:Condens. Matter 21 395502 (2009);
         "P. Giannozzi et al., J. Phys.:Condens. Matter 29 465901 (2017);
          URL http://www.quantum-espresso.org", 
     in publications or presentations arising from this work. More details at
     http://www.quantum-espresso.org/quote

     Parallel version (MPI), running on     2 processors

     MPI processes distributed on     1 nodes
     R & G space division:  proc/nbgrp/npool/nimage =       2
     Waiting for input...
     Reading input from standard input

     Current dimensions of program PWSCF are:
     Max number of different atomic species (ntypx) = 10
     Max number of k-points (npk) =  40000
     Max angular momentum in pseudopotentials (lmaxx) =  3

     Atomic positions and unit cell read from directory:
     /Users/dgprendergast/tmp/na.save/


     Subspace diagonalization in iterative solution of the eigenvalue problem:
     a serial algorithm will be used


     Parallelization info
     --------------------
     sticks:   dense  smooth     PW     G-vecs:    dense   smooth      PW
     Min         217     217     51                 2860     2860     341
     Max         218     218     52                 2861     2861     342
     Sum         435     435    103                 5721     5721     683


     Title: 
     Sodium bcc                                                                 


     bravais-lattice index     =            3
     lattice parameter (alat)  =       7.9935  a.u.
     unit-cell volume          =     255.3765 (a.u.)^3
     number of atoms/cell      =            1
     number of atomic types    =            1
     number of electrons       =         1.00
     number of Kohn-Sham states=            8
     kinetic-energy cutoff     =      30.0000  Ry
     charge density cutoff     =     120.0000  Ry
     Exchange-correlation      = SLA  PZ   NOGX NOGC ( 1  1  0  0 0 0)

     celldm(1)=   7.993500  celldm(2)=   0.000000  celldm(3)=   0.000000
     celldm(4)=   0.000000  celldm(5)=   0.000000  celldm(6)=   0.000000

     crystal axes: (cart. coord. in units of alat)
               a(1) = (   0.500000   0.500000   0.500000 )  
               a(2) = (  -0.500000   0.500000   0.500000 )  
               a(3) = (  -0.500000  -0.500000   0.500000 )  

     reciprocal axes: (cart. coord. in units 2 pi/alat)
               b(1) = (  1.000000  0.000000  1.000000 )  
               b(2) = ( -1.000000  1.000000  0.000000 )  
               b(3) = (  0.000000 -1.000000  1.000000 )  


     PseudoPot. # 1 for Na read from file:
     /Users/dgprendergast/dev/ShirleyForQE/SHIRLEY/examples/example_shirley01/pseudo/Na.cpi.UPF
     MD5 check sum: be28e8dfdc1171974bc59dc2f2debaec
     Pseudo is Norm-conserving, Zval =  1.0
     Generated by new atomic code, or converted to UPF format
     Using radial grid of  485 points,  0 beta functions with: 

     atomic species   valence    mass     pseudopotential
        Na             1.00    26.00000     Na( 1.00)

     No symmetry found



   Cartesian axes

     site n.     atom                  positions (alat units)
         1           Na  tau(   1) = (   0.0000000   0.0000000   0.0000000  )

     number of k points=     1  gaussian smearing, width (Ry)=  0.0000
                       cart. coord. in units 2pi/alat
        k(    1) = (   0.0000000   0.0000000   0.0000000), wk =   2.0000000

     Dense  grid:     5721 G-vectors     FFT dimensions: (  25,  25,  25)

     Estimated max dynamical RAM per process >       1.07 MB

     Estimated total dynamical RAM >       2.15 MB

     The potential is recalculated from file :
     /Users/dgprendergast/tmp/na.save/charge-density

     Starting wfcs are    1 randomized atomic wfcs +    7 random wfcs

     Band Structure Calculation
     CG style diagonalization

     ethr =  1.00E-13,  avg # of iterations = 42.0

     total cpu time spent up to now is        0.1 secs

     End of band structure calculation

          k = 0.0000 0.0000 0.0000 (   683 PWs)   bands (ev):

    -3.4505  12.5033  12.5033  12.5033  13.1378  13.1378  13.1378  13.1451

     the Fermi energy is    -3.4505 ev

     Writing output data file na.save/

     init_run     :      0.01s CPU      0.01s WALL (       1 calls)
     electrons    :      0.06s CPU      0.06s WALL (       1 calls)

     Called by init_run:
     wfcinit      :      0.00s CPU      0.00s WALL (       1 calls)
     potinit      :      0.00s CPU      0.00s WALL (       1 calls)
     hinit0       :      0.00s CPU      0.00s WALL (       1 calls)

     Called by electrons:
     c_bands      :      0.06s CPU      0.06s WALL (       1 calls)
     v_of_rho     :      0.00s CPU      0.00s WALL (       1 calls)

     Called by c_bands:
     ccgdiagg     :      0.06s CPU      0.06s WALL (       3 calls)
     wfcrot       :      0.00s CPU      0.00s WALL (       3 calls)

     Called by sum_band:

     Called by *cgdiagg:
     h_psi        :      0.05s CPU      0.06s WALL (     313 calls)
     cdiaghg      :      0.00s CPU      0.00s WALL (       3 calls)

     Called by h_psi:
     h_psi:pot    :      0.05s CPU      0.05s WALL (     313 calls)
     vloc_psi     :      0.05s CPU      0.05s WALL (     313 calls)
     hs_1psi      :      0.05s CPU      0.05s WALL (     310 calls)
     s_1psi       :      0.00s CPU      0.00s WALL (     310 calls)

     General routines
     fft          :      0.00s CPU      0.00s WALL (       3 calls)
     fftw         :      0.05s CPU      0.05s WALL (     668 calls)
     davcio       :      0.00s CPU      0.00s WALL (       2 calls)

     Parallel routines
     fft_scatt_xy :      0.01s CPU      0.01s WALL (     671 calls)
     fft_scatt_yz :      0.01s CPU      0.01s WALL (     671 calls)

     PWSCF        :      0.13s CPU      0.14s WALL


   This run was terminated on:  21:14:36  16Sep2021            

=------------------------------------------------------------------------------=
   JOB DONE.
=------------------------------------------------------------------------------=
