
     Program PWSCF v.6.3 starts on 16Sep2021 at 21:14:35 

     This program is part of the open-source Quantum ESPRESSO suite
     for quantum simulation of materials; please cite
         "P. Giannozzi et al., J. Phys.:Condens. Matter 21 395502 (2009);
         "P. Giannozzi et al., J. Phys.:Condens. Matter 29 465901 (2017);
          URL http://www.quantum-espresso.org", 
     in publications or presentations arising from this work. More details at
     http://www.quantum-espresso.org/quote

     Parallel version (MPI), running on     2 processors

     MPI processes distributed on     1 nodes
     R & G space division:  proc/nbgrp/npool/nimage =       2
     Waiting for input...
     Reading input from standard input

     Current dimensions of program PWSCF are:
     Max number of different atomic species (ntypx) = 10
     Max number of k-points (npk) =  40000
     Max angular momentum in pseudopotentials (lmaxx) =  3

     Subspace diagonalization in iterative solution of the eigenvalue problem:
     a serial algorithm will be used


     Parallelization info
     --------------------
     sticks:   dense  smooth     PW     G-vecs:    dense   smooth      PW
     Min         217     217     64                 2860     2860     478
     Max         218     218     65                 2861     2861     481
     Sum         435     435    129                 5721     5721     959


     Title: 
     Sodium bcc                                                                 


     bravais-lattice index     =            3
     lattice parameter (alat)  =       7.9935  a.u.
     unit-cell volume          =     255.3765 (a.u.)^3
     number of atoms/cell      =            1
     number of atomic types    =            1
     number of electrons       =         1.00
     number of Kohn-Sham states=            5
     kinetic-energy cutoff     =      30.0000  Ry
     charge density cutoff     =     120.0000  Ry
     convergence threshold     =      1.0E-12
     mixing beta               =       0.7000
     number of iterations used =            8  plain     mixing
     Exchange-correlation      = SLA  PZ   NOGX NOGC ( 1  1  0  0 0 0)

     celldm(1)=   7.993500  celldm(2)=   0.000000  celldm(3)=   0.000000
     celldm(4)=   0.000000  celldm(5)=   0.000000  celldm(6)=   0.000000

     crystal axes: (cart. coord. in units of alat)
               a(1) = (   0.500000   0.500000   0.500000 )  
               a(2) = (  -0.500000   0.500000   0.500000 )  
               a(3) = (  -0.500000  -0.500000   0.500000 )  

     reciprocal axes: (cart. coord. in units 2 pi/alat)
               b(1) = (  1.000000  0.000000  1.000000 )  
               b(2) = ( -1.000000  1.000000  0.000000 )  
               b(3) = (  0.000000 -1.000000  1.000000 )  


     PseudoPot. # 1 for Na read from file:
     /Users/dgprendergast/dev/ShirleyForQE/SHIRLEY/examples/example_shirley01/pseudo/Na.cpi.UPF
     MD5 check sum: be28e8dfdc1171974bc59dc2f2debaec
     Pseudo is Norm-conserving, Zval =  1.0
     Generated by new atomic code, or converted to UPF format
     Using radial grid of  485 points,  0 beta functions with: 

     atomic species   valence    mass     pseudopotential
        Na             1.00    26.00000     Na( 1.00)

     48 Sym. Ops., with inversion, found



   Cartesian axes

     site n.     atom                  positions (alat units)
         1           Na  tau(   1) = (   0.0000000   0.0000000   0.0000000  )

     number of k points=     6  gaussian smearing, width (Ry)=  0.0000
                       cart. coord. in units 2pi/alat
        k(    1) = (   0.0000000   0.0000000   0.2500000), wk =   0.1875000
        k(    2) = (   0.0000000  -0.2500000   0.5000000), wk =   0.7500000
        k(    3) = (  -0.2500000   0.2500000   0.2500000), wk =   0.2500000
        k(    4) = (  -0.2500000   0.7500000  -0.2500000), wk =   0.2500000
        k(    5) = (   0.5000000  -0.5000000   0.2500000), wk =   0.3750000
        k(    6) = (   0.0000000   0.0000000   0.7500000), wk =   0.1875000

     Dense  grid:     5721 G-vectors     FFT dimensions: (  25,  25,  25)

     Estimated max dynamical RAM per process >       2.17 MB

     Estimated total dynamical RAM >       4.34 MB

     Initial potential from superposition of free atoms

     starting charge    0.99373, renormalised to    1.00000
     Starting wfcs are    1 randomized atomic wfcs +    4 random wfcs

     total cpu time spent up to now is        0.0 secs

     Self-consistent Calculation

     iteration #  1     ecut=    30.00 Ry     beta= 0.70
     Davidson diagonalization with overlap
     ethr =  1.00E-02,  avg # of iterations =  5.3

     Threshold (ethr) on eigenvalues was too large:
     Diagonalizing with lowered threshold

     Davidson diagonalization with overlap
     ethr =  5.43E-05,  avg # of iterations =  5.2

     total cpu time spent up to now is        0.1 secs

     total energy              =      -0.47752137 Ry
     Harris-Foulkes estimate   =      -0.47716068 Ry
     estimated scf accuracy    <       0.00054066 Ry

     iteration #  2     ecut=    30.00 Ry     beta= 0.70
     Davidson diagonalization with overlap
     ethr =  5.41E-05,  avg # of iterations =  1.0

     total cpu time spent up to now is        0.1 secs

     total energy              =      -0.47758412 Ry
     Harris-Foulkes estimate   =      -0.47753013 Ry
     estimated scf accuracy    <       0.00005971 Ry

     iteration #  3     ecut=    30.00 Ry     beta= 0.70
     Davidson diagonalization with overlap
     ethr =  5.97E-06,  avg # of iterations =  2.5

     total cpu time spent up to now is        0.1 secs

     total energy              =      -0.47758721 Ry
     Harris-Foulkes estimate   =      -0.47758831 Ry
     estimated scf accuracy    <       0.00000004 Ry

     iteration #  4     ecut=    30.00 Ry     beta= 0.70
     Davidson diagonalization with overlap
     ethr =  3.90E-09,  avg # of iterations =  2.0

     total cpu time spent up to now is        0.2 secs

     total energy              =      -0.47758838 Ry
     Harris-Foulkes estimate   =      -0.47758747 Ry
     estimated scf accuracy    <       0.00000099 Ry

     iteration #  5     ecut=    30.00 Ry     beta= 0.70
     Davidson diagonalization with overlap
     ethr =  3.90E-09,  avg # of iterations =  1.5

     total cpu time spent up to now is        0.2 secs

     total energy              =      -0.47758846 Ry
     Harris-Foulkes estimate   =      -0.47758846 Ry
     estimated scf accuracy    <          2.7E-09 Ry

     iteration #  6     ecut=    30.00 Ry     beta= 0.70
     Davidson diagonalization with overlap
     ethr =  2.68E-10,  avg # of iterations =  1.0

     total cpu time spent up to now is        0.2 secs

     total energy              =      -0.47758845 Ry
     Harris-Foulkes estimate   =      -0.47758846 Ry
     estimated scf accuracy    <          1.4E-09 Ry

     iteration #  7     ecut=    30.00 Ry     beta= 0.70
     Davidson diagonalization with overlap
     ethr =  1.39E-10,  avg # of iterations =  1.5

     total cpu time spent up to now is        0.2 secs

     total energy              =      -0.47758846 Ry
     Harris-Foulkes estimate   =      -0.47758845 Ry
     estimated scf accuracy    <          3.4E-09 Ry

     iteration #  8     ecut=    30.00 Ry     beta= 0.70
     Davidson diagonalization with overlap
     ethr =  1.39E-10,  avg # of iterations =  1.5

     total cpu time spent up to now is        0.2 secs

     total energy              =      -0.47758846 Ry
     Harris-Foulkes estimate   =      -0.47758846 Ry
     estimated scf accuracy    <          2.2E-11 Ry

     iteration #  9     ecut=    30.00 Ry     beta= 0.70
     Davidson diagonalization with overlap
     ethr =  2.19E-12,  avg # of iterations =  1.5

     total cpu time spent up to now is        0.2 secs

     End of self-consistent calculation

          k = 0.0000 0.0000 0.2500 (   695 PWs)   bands (ev):

    -2.9316   9.1469   9.1469   9.4882  10.4968

          k = 0.0000-0.2500 0.5000 (   708 PWs)   bands (ev):

    -0.8667   3.3218   7.0538   7.9975  11.2433

          k =-0.2500 0.2500 0.2500 (   709 PWs)   bands (ev):

    -1.8963   6.1666   6.1666   7.0670  14.3990

          k =-0.2500 0.7500-0.2500 (   703 PWs)   bands (ev):

     1.9690   1.9690   2.9215  10.3558  10.3712

          k = 0.5000-0.5000 0.2500 (   710 PWs)   bands (ev):

     0.9203   1.5203   5.1183   5.8473  13.5201

          k = 0.0000 0.0000 0.7500 (   711 PWs)   bands (ev):

     1.1869   4.9568   4.9568   5.2864   6.6639

     the Fermi energy is    -0.8666 ev

!    total energy              =      -0.47758846 Ry
     Harris-Foulkes estimate   =      -0.47758846 Ry
     estimated scf accuracy    <          2.1E-13 Ry

     The total energy is the sum of the following terms:

     one-electron contribution =       0.27630607 Ry
     hartree contribution      =       0.00105360 Ry
     xc contribution           =      -0.29967280 Ry
     ewald contribution        =      -0.45527415 Ry
     smearing contrib. (-TS)   =      -0.00000118 Ry

     convergence has been achieved in   9 iterations

     Forces acting on atoms (cartesian axes, Ry/au):

     atom    1 type  1   force =     0.00000000    0.00000000    0.00000000

     Total force =     0.000000     Total SCF correction =     0.000000


     Computing stress (Cartesian axis) and pressure

          total   stress  (Ry/bohr**3)                   (kbar)     P=  -14.24
  -0.00009681   0.00000000  -0.00000000        -14.24      0.00     -0.00
   0.00000000  -0.00009681   0.00000000          0.00    -14.24      0.00
  -0.00000000   0.00000000  -0.00009681         -0.00      0.00    -14.24


     Writing output data file na.save/

     init_run     :      0.02s CPU      0.02s WALL (       1 calls)
     electrons    :      0.20s CPU      0.21s WALL (       1 calls)
     forces       :      0.00s CPU      0.00s WALL (       1 calls)
     stress       :      0.00s CPU      0.00s WALL (       1 calls)

     Called by init_run:
     wfcinit      :      0.01s CPU      0.01s WALL (       1 calls)
     potinit      :      0.00s CPU      0.00s WALL (       1 calls)
     hinit0       :      0.00s CPU      0.00s WALL (       1 calls)

     Called by electrons:
     c_bands      :      0.15s CPU      0.16s WALL (      10 calls)
     sum_band     :      0.03s CPU      0.03s WALL (      10 calls)
     v_of_rho     :      0.01s CPU      0.01s WALL (      10 calls)
     mix_rho      :      0.00s CPU      0.01s WALL (      10 calls)

     Called by c_bands:
     cegterg      :      0.15s CPU      0.16s WALL (      60 calls)

     Called by sum_band:

     Called by *egterg:
     h_psi        :      0.13s CPU      0.13s WALL (     204 calls)
     g_psi        :      0.00s CPU      0.00s WALL (     138 calls)
     cdiaghg      :      0.01s CPU      0.01s WALL (     192 calls)

     Called by h_psi:
     h_psi:pot    :      0.13s CPU      0.13s WALL (     204 calls)
     vloc_psi     :      0.13s CPU      0.13s WALL (     204 calls)

     General routines
     fft          :      0.01s CPU      0.01s WALL (      35 calls)
     ffts         :      0.00s CPU      0.00s WALL (      10 calls)
     fftw         :      0.13s CPU      0.14s WALL (    1878 calls)

     Parallel routines
     fft_scatt_xy :      0.02s CPU      0.02s WALL (    1923 calls)
     fft_scatt_yz :      0.02s CPU      0.02s WALL (    1923 calls)

     PWSCF        :      0.23s CPU      0.26s WALL


   This run was terminated on:  21:14:36  16Sep2021            

=------------------------------------------------------------------------------=
   JOB DONE.
=------------------------------------------------------------------------------=
