
     Program PWSCF v.6.3 starts on 14Dec2018 at 12:22: 5 

     This program is part of the open-source Quantum ESPRESSO suite
     for quantum simulation of materials; please cite
         "P. Giannozzi et al., J. Phys.:Condens. Matter 21 395502 (2009);
         "P. Giannozzi et al., J. Phys.:Condens. Matter 29 465901 (2017);
          URL http://www.quantum-espresso.org", 
     in publications or presentations arising from this work. More details at
     http://www.quantum-espresso.org/quote

     Parallel version (MPI & OpenMP), running on      64 processor cores
     Number of MPI processes:                 4
     Threads/MPI process:                    16

     MPI processes distributed on     1 nodes
     R & G space division:  proc/nbgrp/npool/nimage =       4
     Waiting for input...
     Reading input from standard input

     Current dimensions of program PWSCF are:
     Max number of different atomic species (ntypx) = 10
     Max number of k-points (npk) =  40000
     Max angular momentum in pseudopotentials (lmaxx) =  3
               file H.pz-vbc.UPF: wavefunction(s)  1S renormalized

     gamma-point specific algorithms are used

     Subspace diagonalization in iterative solution of the eigenvalue problem:
     a serial algorithm will be used

 
     Parallelization info
     --------------------
     sticks:   dense  smooth     PW     G-vecs:    dense   smooth      PW
     Min         716     716    177                28824    28824    3587
     Max         718     718    180                28830    28830    3592
     Sum        2869    2869    717               115313   115313   14363
 


     bravais-lattice index     =            1
     lattice parameter (alat)  =      15.0000  a.u.
     unit-cell volume          =    3375.0000 (a.u.)^3
     number of atoms/cell      =            5
     number of atomic types    =            2
     number of electrons       =         8.00
     number of Kohn-Sham states=            5
     kinetic-energy cutoff     =      40.0000  Ry
     charge density cutoff     =     160.0000  Ry
     convergence threshold     =      1.0E-08
     mixing beta               =       0.5000
     number of iterations used =            8  plain     mixing
     Exchange-correlation      =  SLA  PZ   NOGX NOGC ( 1  1  0  0 0 0)

     celldm(1)=  15.000000  celldm(2)=   0.000000  celldm(3)=   0.000000
     celldm(4)=   0.000000  celldm(5)=   0.000000  celldm(6)=   0.000000

     crystal axes: (cart. coord. in units of alat)
               a(1) = (   1.000000   0.000000   0.000000 )  
               a(2) = (   0.000000   1.000000   0.000000 )  
               a(3) = (   0.000000   0.000000   1.000000 )  

     reciprocal axes: (cart. coord. in units 2 pi/alat)
               b(1) = (  1.000000  0.000000  0.000000 )  
               b(2) = (  0.000000  1.000000  0.000000 )  
               b(3) = (  0.000000  0.000000  1.000000 )  


     PseudoPot. # 1 for H  read from file:
     /marconi/home/userexternal/pumari00/QE_LAST/develop//pseudo/H.pz-vbc.UPF
     MD5 check sum: 90becb985b714f09656c73597998d266
     Pseudo is Norm-conserving, Zval =  1.0
     Generated by new atomic code, or converted to UPF format
     Using radial grid of  131 points,  0 beta functions with: 

     PseudoPot. # 2 for C  read from file:
     /marconi/home/userexternal/pumari00/QE_LAST/develop//pseudo/C.pz-vbc.UPF
     MD5 check sum: ab53dd623bfeb79c5a7b057bc96eae20
     Pseudo is Norm-conserving, Zval =  4.0
     Generated by new atomic code, or converted to UPF format
     Using radial grid of  269 points,  1 beta functions with: 
                l(1) =   0

     atomic species   valence    mass     pseudopotential
        H              1.00     1.00000     H ( 1.00)
        C              4.00    12.00000     C ( 1.00)

     24 Sym. Ops. (no inversion) found



   Cartesian axes

     site n.     atom                  positions (alat units)
         1           H   tau(   1) = (   0.0798803   0.0798803   0.0798803  )
         2           H   tau(   2) = (  -0.0798803  -0.0798803   0.0798803  )
         3           H   tau(   3) = (   0.0798803  -0.0798803  -0.0798803  )
         4           H   tau(   4) = (  -0.0798803   0.0798803  -0.0798803  )
         5           C   tau(   5) = (   0.0000000   0.0000000   0.0000000  )

     number of k points=     1
                       cart. coord. in units 2pi/alat
        k(    1) = (   0.0000000   0.0000000   0.0000000), wk =   2.0000000

     Dense  grid:    57657 G-vectors     FFT dimensions: (  64,  64,  64)

     Estimated max dynamical RAM per process >      11.59 MB

     Estimated total dynamical RAM >      46.35 MB

     Initial potential from superposition of free atoms

     starting charge    7.99987, renormalised to    8.00000

     negative rho (up, down):  2.917E-03 0.000E+00
     Starting wfcs are    8 randomized atomic wfcs

     total cpu time spent up to now is        0.5 secs

     Self-consistent Calculation

     iteration #  1     ecut=    40.00 Ry     beta= 0.50
     CG style diagonalization
     ethr =  1.00E-02,  avg # of iterations =  3.4

     negative rho (up, down):  1.390E-03 0.000E+00

     total cpu time spent up to now is        0.6 secs

     total energy              =     -15.84749970 Ry
     Harris-Foulkes estimate   =     -16.24057658 Ry
     estimated scf accuracy    <       0.68490669 Ry

     iteration #  2     ecut=    40.00 Ry     beta= 0.50
     CG style diagonalization
     ethr =  8.56E-03,  avg # of iterations =  3.8

     negative rho (up, down):  6.333E-04 0.000E+00

     total cpu time spent up to now is        0.8 secs

     total energy              =     -15.96810683 Ry
     Harris-Foulkes estimate   =     -15.98174184 Ry
     estimated scf accuracy    <       0.03661571 Ry

     iteration #  3     ecut=    40.00 Ry     beta= 0.50
     CG style diagonalization
     ethr =  4.58E-04,  avg # of iterations =  3.4

     total cpu time spent up to now is        0.9 secs

     total energy              =     -15.96643830 Ry
     Harris-Foulkes estimate   =     -15.97055203 Ry
     estimated scf accuracy    <       0.00857817 Ry

     iteration #  4     ecut=    40.00 Ry     beta= 0.50
     CG style diagonalization
     ethr =  1.07E-04,  avg # of iterations =  3.8

     negative rho (up, down):  3.577E-05 0.000E+00

     total cpu time spent up to now is        1.0 secs

     total energy              =     -15.96715418 Ry
     Harris-Foulkes estimate   =     -15.96873750 Ry
     estimated scf accuracy    <       0.00287644 Ry

     iteration #  5     ecut=    40.00 Ry     beta= 0.50
     CG style diagonalization
     ethr =  3.60E-05,  avg # of iterations =  3.8

     negative rho (up, down):  4.112E-07 0.000E+00

     total cpu time spent up to now is        1.1 secs

     total energy              =     -15.96776255 Ry
     Harris-Foulkes estimate   =     -15.96779547 Ry
     estimated scf accuracy    <       0.00007170 Ry

     iteration #  6     ecut=    40.00 Ry     beta= 0.50
     CG style diagonalization
     ethr =  8.96E-07,  avg # of iterations =  4.0

     negative rho (up, down):  1.662E-08 0.000E+00

     total cpu time spent up to now is        1.3 secs

     total energy              =     -15.96778317 Ry
     Harris-Foulkes estimate   =     -15.96778404 Ry
     estimated scf accuracy    <       0.00000309 Ry

     iteration #  7     ecut=    40.00 Ry     beta= 0.50
     CG style diagonalization
     ethr =  3.86E-08,  avg # of iterations =  3.8

     total cpu time spent up to now is        1.4 secs

     total energy              =     -15.96778309 Ry
     Harris-Foulkes estimate   =     -15.96778379 Ry
     estimated scf accuracy    <       0.00000153 Ry

     iteration #  8     ecut=    40.00 Ry     beta= 0.50
     CG style diagonalization
     ethr =  1.91E-08,  avg # of iterations =  3.6

     total cpu time spent up to now is        1.5 secs

     total energy              =     -15.96778324 Ry
     Harris-Foulkes estimate   =     -15.96778328 Ry
     estimated scf accuracy    <       0.00000011 Ry

     iteration #  9     ecut=    40.00 Ry     beta= 0.50
     CG style diagonalization
     ethr =  1.33E-09,  avg # of iterations =  3.8

     total cpu time spent up to now is        1.7 secs

     End of self-consistent calculation

          k = 0.0000 0.0000 0.0000 (  7182 PWs)   bands (ev):

   -16.6119  -9.1111  -9.1111  -9.1111  -0.5651

     highest occupied, lowest unoccupied level (ev):    -9.1111   -0.5651

!    total energy              =     -15.96778326 Ry
     Harris-Foulkes estimate   =     -15.96778326 Ry
     estimated scf accuracy    <          2.2E-09 Ry

     The total energy is the sum of the following terms:

     one-electron contribution =     -35.26104101 Ry
     hartree contribution      =      18.41289620 Ry
     xc contribution           =      -6.14149135 Ry
     ewald contribution        =       7.02185290 Ry

     convergence has been achieved in   9 iterations

     Forces acting on atoms (cartesian axes, Ry/au):

     atom    1 type  1   force =     0.00003376    0.00003376    0.00003376
     atom    2 type  1   force =    -0.00003376   -0.00003376    0.00003376
     atom    3 type  1   force =     0.00003376   -0.00003376   -0.00003376
     atom    4 type  1   force =    -0.00003376    0.00003376   -0.00003376
     atom    5 type  2   force =     0.00000000    0.00000000    0.00000000

     Total force =     0.000117     Total SCF correction =     0.000028
     SCF correction compared to forces is large: reduce conv_thr to get better values

     Writing output data file ch4.save/
 
     init_run     :      3.21s CPU      0.40s WALL (       1 calls)
     electrons    :     17.39s CPU      1.21s WALL (       1 calls)
     forces       :      1.45s CPU      0.13s WALL (       1 calls)

     Called by init_run:
     wfcinit      :      0.87s CPU      0.11s WALL (       1 calls)
     potinit      :      0.74s CPU      0.05s WALL (       1 calls)
     hinit0       :      1.54s CPU      0.18s WALL (       1 calls)

     Called by electrons:
     c_bands      :     11.81s CPU      0.82s WALL (       9 calls)
     sum_band     :      1.60s CPU      0.11s WALL (       9 calls)
     v_of_rho     :      1.09s CPU      0.08s WALL (      10 calls)
     mix_rho      :      2.21s CPU      0.16s WALL (       9 calls)

     Called by c_bands:
     init_us_2    :      0.09s CPU      0.01s WALL (      19 calls)
     rcgdiagg     :     10.12s CPU      0.71s WALL (       9 calls)
     wfcrot       :      2.27s CPU      0.20s WALL (       9 calls)

     Called by sum_band:

     Called by *cgdiagg:
     h_psi        :      9.07s CPU      0.63s WALL (     136 calls)
     rdiaghg      :      0.17s CPU      0.01s WALL (       9 calls)

     Called by h_psi:
     h_psi:pot    :      8.83s CPU      0.61s WALL (     136 calls)
     h_psi:calbec :      0.52s CPU      0.04s WALL (     136 calls)
     vloc_psi     :      7.76s CPU      0.53s WALL (     136 calls)
     add_vuspsi   :      0.21s CPU      0.02s WALL (     136 calls)
     hs_1psi      :      8.00s CPU      0.55s WALL (     127 calls)
     s_1psi       :      0.63s CPU      0.04s WALL (     127 calls)

     General routines
     calbec       :      0.64s CPU      0.05s WALL (     267 calls)
     fft          :      2.57s CPU      0.21s WALL (      31 calls)
     ffts         :      0.30s CPU      0.02s WALL (       9 calls)
     fftw         :      5.77s CPU      0.39s WALL (     337 calls)
 
     Parallel routines
     fft_scatt_xy :      1.16s CPU      0.08s WALL (     377 calls)
     fft_scatt_yz :      3.22s CPU      0.22s WALL (     377 calls)
 
     PWSCF        :     24.05s CPU      1.97s WALL

 
   This run was terminated on:  12:22: 7  14Dec2018            

=------------------------------------------------------------------------------=
   JOB DONE.
=------------------------------------------------------------------------------=
